 &FCI NORB=  4,NELEC=  3,MS2= 1,
  ORBSYM=1,1,1,1,
  ISYM=1,
 /
  0.1002049279106169E+01   1   1   1   1
 -0.1382092599437846E+00   2   1   1   1
  0.6485227269764228E-01   2   1   2   1
  0.4673234957833827E+00   2   2   1   1
  0.4989824227538459E-01   2   2   2   1
  0.5839992954030415E+00   2   2   2   2
 -0.1517492055887898E-01   3   1   1   1
 -0.2069067392452680E-01   3   1   2   1
 -0.5751568166936707E-01   3   1   2   2
  0.1939511325541083E-01   3   1   3   1
 -0.1044796514646331E+00   3   2   1   1
 -0.2929652115408204E-01   3   2   2   1
 -0.1541353796323744E+00   3   2   2   2
  0.3872085071802571E-01   3   2   3   1
  0.1178735715262985E+00   3   2   3   2
  0.3885486254266068E+00   3   3   1   1
  0.5006218224211556E-01   3   3   2   1
  0.4979237043597462E+00   3   3   2   2
 -0.5111848650378584E-01   3   3   3   1
 -0.1312444631559733E+00   3   3   3   2
  0.4573957506058686E+00   3   3   3   3
 -0.2811020923294896E+00   4   1   1   1
  0.7446954813765541E-01   4   1   2   1
 -0.4251405468381080E-01   4   1   2   2
  0.4294974156896540E-02   4   1   3   1
  0.1091963482501204E-01   4   1   3   2
 -0.1588222832250619E-01   4   1   3   3
  0.2034542975544660E+00   4   1   4   1
  0.1305089471883830E+00   4   2   1   1
 -0.2219592339903250E-01   4   2   2   1
  0.3014814129051409E-01   4   2   2   2
 -0.6421807835714531E-02   4   2   3   1
 -0.2166699283605539E-01   4   2   3   2
  0.2258340132849010E-01   4   2   3   3
 -0.6691369173845638E-01   4   2   4   1
  0.3400362514376000E-01   4   2   4   2
  0.3110357914716191E-01   4   3   1   1
 -0.1533107656084562E-01   4   3   2   1
 -0.1969938707269433E-01   4   3   2   2
  0.9276349233695875E-02   4   3   3   1
  0.4721229170170118E-02   4   3   3   2
 -0.1775579042009791E-01   4   3   3   3
  0.1518404118280026E-02   4   3   4   1
  0.2846598621378024E-02   4   3   4   2
  0.1316512408950684E-01   4   3   4   3
  0.8286549734538965E+00   4   4   1   1
 -0.1172152770567491E+00   4   4   2   1
  0.4029277221161265E+00   4   4   2   2
 -0.1257985010587694E-02   4   4   3   1
 -0.7007904257387942E-01   4   4   3   2
  0.3410867726177893E+00   4   4   3   3
 -0.2258202207930378E+00   4   4   4   1
  0.1016452683847060E+00   4   4   4   2
  0.3395579466637292E-01   4   4   4   3
  0.7405350304572278E+00   4   4   4   4
 -0.2472946552297347E+01   1   1   0   0
  0.8831102685830172E-01   2   1   0   0
 -0.1246019985978780E+01   2   2   0   0
  0.5804244426860153E-01   3   1   0   0
  0.1882686402162879E+00   3   2   0   0
 -0.5936360555759146E+00   3   3   0   0
  0.3125182076539179E+00   4   1   0   0
 -0.1865483740696485E+00   4   2   0   0
 -0.5987978987556064E-01   4   3   0   0
 -0.3496561998344294E+00   4   4   0   0
  0.1058354421840000E+01   0   0   0   0
