 &FCI NORB=  4,NELEC=  3,MS2= 1,
  ORBSYM=1,1,1,1,
  ISYM=1,
  IUHF=1,
 /
  0.9688045217297561E+00   1   1   1   1
 -0.1634297222538513E+00   2   1   1   1
  0.9457154960828869E-01   2   1   2   1
  0.4982680581437985E+00   2   2   1   1
  0.4675531798755300E-01   2   2   2   1
  0.5703800187238435E+00   2   2   2   2
 -0.1973006457126098E-01   3   1   1   1
 -0.2877920221949098E-01   3   1   2   1
 -0.6458185860122242E-01   3   1   2   2
  0.2610971033375965E-01   3   1   3   1
 -0.1105512753817260E+00   3   2   1   1
 -0.3078929185113063E-01   3   2   2   1
 -0.1450604155440529E+00   3   2   2   2
  0.4513986834629605E-01   3   2   3   1
  0.1112336839620038E+00   3   2   3   2
  0.3973619523745013E+00   3   3   1   1
  0.5792182946273795E-01   3   3   2   1
  0.4888810112041130E+00   3   3   2   2
 -0.6026448012280120E-01   3   3   3   1
 -0.1256767807008574E+00   3   3   3   2
  0.4547109069456641E+00   3   3   3   3
 -0.2617557317260198E+00   4   1   1   1
  0.8899235777766429E-01   4   1   2   1
 -0.5122498210947831E-01   4   1   2   2
  0.1149004344776145E-02   4   1   3   1
  0.9907905723144629E-02   4   1   3   2
 -0.1365653952484705E-01   4   1   3   3
  0.1920997216963649E+00   4   1   4   1
  0.1462862218752936E+00   4   2   1   1
 -0.3520329420393669E-01   4   2   2   1
  0.3768669181912794E-01   4   2   2   2
 -0.6843367274870840E-02   4   2   3   1
 -0.2237456934912655E-01   4   2   3   2
  0.2362053634761541E-01   4   2   3   3
 -0.7749855324444546E-01   4   2   4   1
  0.4399053058233030E-01   4   2   4   2
  0.2512222765614686E-01   4   3   1   1
 -0.1782887927520964E-01   4   3   2   1
 -0.1814752042586063E-01   4   3   2   2
  0.1018341572281620E-01   4   3   3   1
  0.4116538306064742E-02   4   3   3   2
 -0.1791677560603386E-01   4   3   3   3
  0.3973135149161176E-02   4   3   4   1
  0.1690224534087677E-02   4   3   4   2
  0.1335918177182726E-01   4   3   4   3
  0.8088997131735193E+00   4   4   1   1
 -0.1448992825353499E+00   4   4   2   1
  0.4209232875625500E+00   4   4   2   2
 -0.5298644028054467E-03   4   4   3   1
 -0.7135313112197611E-01   4   4   3   2
  0.3407516449865535E+00   4   4   3   3
 -0.2143126151491593E+00   4   4   4   1
  0.1153736516279253E+00   4   4   4   2
  0.3134850797115034E-01   4   4   4   3
  0.7328431607980321E+00   4   4   4   4
  0.0000000000000000E+00   0   0   0   0
  0.9908757060226141E+00   1   1   1   1
 -0.1339425451024306E+00   2   1   1   1
  0.4781248793258354E-01   2   1   2   1
  0.3973725492236410E+00   2   2   1   1
  0.2184471164040569E-01   2   2   2   1
  0.4342985998751958E+00   2   2   2   2
  0.9160794961193600E-02   3   1   1   1
 -0.2501521866447257E-01   3   1   2   1
 -0.4430907188026285E-01   3   1   2   2
  0.3225079361179073E-01   3   1   3   1
 -0.1012274830628930E+00   3   2   1   1
 -0.1360562322666418E-01   3   2   2   1
 -0.8882191607789042E-01   3   2   2   2
  0.3964916932234509E-01   3   2   3   1
  0.9291593595553638E-01   3   2   3   2
  0.4516911743364917E+00   3   3   1   1
  0.4075645885136327E-01   3   3   2   1
  0.4725862115482057E+00   3   3   2   2
 -0.8920291572174932E-01   3   3   3   1
 -0.1791803990144987E+00   3   3   3   2
  0.6502033260376656E+00   3   3   3   3
 -0.2809715709298639E+00   4   1   1   1
  0.7167223288513605E-01   4   1   2   1
 -0.3112566437727259E-01   4   1   2   2
 -0.8487849769179911E-02   4   1   3   1
  0.1169871075183290E-01   4   1   3   2
 -0.1947545802829589E-01   4   1   3   3
  0.2074601586380542E+00   4   1   4   1
  0.1314991366111569E+00   4   2   1   1
 -0.2296986868250149E-01   4   2   2   1
  0.1541497079354926E-01   4   2   2   2
 -0.1753709554947843E-02   4   2   3   1
 -0.2007128889444878E-01   4   2   3   2
  0.3564991020743782E-01   4   2   3   3
 -0.6274980282704071E-01   4   2   4   1
  0.3296376193728000E-01   4   2   4   2
  0.7162045382560114E-02   4   3   1   1
 -0.1148225038281447E-01   4   3   2   1
 -0.2625120687346922E-01   4   3   2   2
  0.1796159132832304E-01   4   3   3   1
  0.1497603925131749E-01   4   3   3   2
 -0.4140087113294083E-01   4   3   3   3
  0.1087687527320464E-01   4   3   4   1
 -0.1395467124610890E-02   4   3   4   2
  0.1655516794485437E-01   4   3   4   3
  0.8335677308625081E+00   4   4   1   1
 -0.1123289823254146E+00   4   4   2   1
  0.3584358745360012E+00   4   4   2   2
  0.1841935930298510E-01   4   4   3   1
 -0.7222983414398332E-01   4   4   3   2
  0.3900260550037100E+00   4   4   3   3
 -0.2354744412117996E+00   4   4   4   1
  0.1074997480891653E+00   4   4   4   2
  0.1564061610136591E-01   4   4   4   3
  0.7541731201307980E+00   4   4   4   4
  0.0000000000000000E+00   0   0   0   0
  0.9791718016741340E+00   1   1   1   1
 -0.1271256543755643E+00   1   1   2   1
  0.4052827068050395E+00   1   1   2   2
  0.3101656360946781E-02   1   1   3   1
 -0.1071235941529519E+00   1   1   3   2
  0.4660188469479305E+00   1   1   3   3
 -0.2759721758443809E+00   1   1   4   1
  0.1301088573116945E+00   1   1   4   2
  0.3704349665942408E-02   1   1   4   3
  0.8228608899944745E+00   1   1   4   4
 -0.1735604229713776E+00   2   1   1   1
  0.6662328918607646E-01   2   1   2   1
  0.4047714901269957E-01   2   1   2   2
 -0.3973109567045324E-01   2   1   3   1
 -0.2944825657498304E-01   2   1   3   2
  0.7741086740403114E-01   2   1   3   3
  0.9404474810115848E-01   2   1   4   1
 -0.3006367983599029E-01   2   1   4   2
 -0.1900438503349388E-01   2   1   4   3
 -0.1479794507842632E+00   2   1   4   4
  0.4878147103395151E+00   2   2   1   1
  0.2151857167120974E-01   2   2   2   1
  0.4835239386837732E+00   2   2   2   2
 -0.6568124894453795E-01   2   2   3   1
 -0.1462661942282729E+00   2   2   3   2
  0.5810306130245535E+00   2   2   3   3
 -0.5233830504837989E-01   2   2   4   1
  0.3401847340634723E-01   2   2   4   2
 -0.3387236534290905E-01   2   2   4   3
  0.4260831135864638E+00   2   2   4   4
 -0.1486165115942005E-01   3   1   1   1
 -0.1688461356095489E-01   3   1   2   1
 -0.4086670695389810E-01   3   1   2   2
  0.2827837326528861E-01   3   1   3   1
  0.4075161477254097E-01   3   1   3   2
 -0.8761730363947118E-01   3   1   3   3
  0.7029563764340448E-03   3   1   4   1
 -0.5507647925328499E-02   3   1   4   2
  0.1529078462616630E-01   3   1   4   3
 -0.1760605945304271E-02   3   1   4   4
 -0.1043232436396325E+00   3   2   1   1
 -0.1390118600254016E-01   3   2   2   1
 -0.8192668825264493E-01   3   2   2   2
  0.4333163961237173E-01   3   2   3   1
  0.9989490084854391E-01   3   2   3   2
 -0.1928904137949333E+00   3   2   3   3
  0.1014781243138888E-01   3   2   4   1
 -0.2331702094476554E-01   3   2   4   2
  0.1582748777628287E-01   3   2   4   3
 -0.7350125706140331E-01   3   2   4   4
  0.3869069329394493E+00   3   3   1   1
  0.3172535065364679E-01   3   3   2   1
  0.4187560555186577E+00   3   3   2   2
 -0.6273688620884033E-01   3   3   3   1
 -0.1178698149811226E+00   3   3   3   2
  0.5319991347355000E+00   3   3   3   3
 -0.1345044769324522E-01   3   3   4   1
  0.2191089845714039E-01   3   3   4   2
 -0.3187925821538801E-01   3   3   4   3
  0.3440433923172221E+00   3   3   4   4
 -0.2663635919841645E+00   4   1   1   1
  0.6796757051433340E-01   4   1   2   1
 -0.3088556960775906E-01   4   1   2   2
 -0.7488790662132904E-02   4   1   3   1
  0.1153574993473418E-01   4   1   3   2
 -0.1958456827266677E-01   4   1   3   3
  0.1995800834306730E+00   4   1   4   1
 -0.5960963186766916E-01   4   1   4   2
  0.1093923532887535E-01   4   1   4   3
 -0.2241161386449182E+00   4   1   4   4
  0.1476484074642215E+00   4   2   1   1
 -0.2709362262728701E-01   4   2   2   1
  0.1870040306921507E-01   4   2   2   2
 -0.2963655881970365E-02   4   2   3   1
 -0.1938906859110300E-01   4   2   3   2
  0.3670893959833466E-01   4   2   3   3
 -0.8125368987222822E-01   4   2   4   1
  0.3728173278716836E-01   4   2   4   2
 -0.5157545656863202E-02   4   2   4   3
  0.1199093515381906E+00   4   2   4   4
  0.2793844912321585E-01   4   3   1   1
 -0.1135586871981174E-01   4   3   2   1
 -0.1750680579612147E-01   4   3   2   2
  0.1300408337101296E-01   4   3   3   1
  0.4784755866844549E-02   4   3   3   2
 -0.2047229156398420E-01   4   3   3   3
  0.3524058751929179E-02   4   3   4   1
  0.4843136618108139E-02   4   3   4   2
  0.1393926703339808E-01   4   3   4   3
  0.3044708783229173E-01   4   3   4   4
  0.8196137154921538E+00   4   4   1   1
 -0.1097886248853678E+00   4   4   2   1
  0.3551305341755737E+00   4   4   2   2
  0.1938464545460163E-01   4   4   3   1
 -0.7020002893692079E-01   4   4   3   2
  0.3854581722180774E+00   4   4   3   3
 -0.2252862059612236E+00   4   4   4   1
  0.1040255365261240E+00   4   4   4   2
  0.1719785736986715E-01   4   4   4   3
  0.7432153846348517E+00   4   4   4   4
  0.0000000000000000E+00   0   0   0   0
 -0.2460498050796183E+01   1   1   0   0
  0.1735604179993886E+00   2   1   0   0
 -0.1265122292195560E+01   2   2   0   0
  0.4865423216839981E-01   3   1   0   0
  0.1860953333898798E+00   3   2   0   0
 -0.5923414416436756E+00   3   3   0   0
  0.2823852707474623E+00   4   1   0   0
 -0.2049422669052094E+00   4   2   0   0
 -0.5613872202311754E-01   4   3   0   0
 -0.3442970090510453E+00   4   4   0   0
  0.0000000000000000E+00   0   0   0   0
 -0.2465668545358990E+01   1   1   0   0
  0.1056070747422923E+00   2   1   0   0
 -0.1077653634546706E+01   2   2   0   0
  0.6257958579061532E-01   3   1   0   0
  0.3296020451261741E+00   3   2   0   0
 -0.7562382778179586E+00   3   3   0   0
  0.3283104989133827E+00   4   1   0   0
 -0.2239542343421734E+00   4   2   0   0
  0.1451811875397802E-01   4   3   0   0
 -0.3626983359628184E+00   4   4   0   0
  0.0000000000000000E+00   0   0   0   0
  0.1058354421840000E+01   0   0   0   0
